# y+ ()       
# Time        	patch         	min           	max           	average       
0             	rightWall	1.505548e+01	2.220358e+02	9.707484e+01
0             	leftWall	1.502500e+01	2.215847e+02	9.687569e+01
0             	lowerWall	2.088649e+01	2.210283e+02	2.043571e+02
0.05          	rightWall	2.701136e+00	8.013101e+01	3.121337e+01
0.05          	leftWall	2.748731e+00	8.049124e+01	3.230738e+01
0.05          	lowerWall	2.570982e+00	8.523602e+01	7.004933e+01
0.1           	rightWall	1.754442e+00	4.783244e+01	1.860792e+01
0.1           	leftWall	1.875899e+00	4.864902e+01	2.012489e+01
0.1           	lowerWall	1.007586e+00	5.194682e+01	4.184578e+01
0.15          	rightWall	8.519651e-01	3.498350e+01	1.333551e+01
0.15          	leftWall	1.051346e+00	3.589287e+01	1.492838e+01
0.15          	lowerWall	1.196710e+00	3.963436e+01	3.081474e+01
0.2           	rightWall	2.654070e-01	2.790644e+01	1.044664e+01
0.2           	leftWall	1.773031e-01	2.874626e+01	1.185801e+01
0.2           	lowerWall	9.660128e-01	3.555263e+01	2.479573e+01
0.25          	rightWall	5.118286e-01	2.341669e+01	8.985625e+00
0.25          	leftWall	2.136639e-01	2.421961e+01	1.005537e+01
0.25          	lowerWall	8.290777e-01	4.246446e+01	2.101054e+01
0.3           	rightWall	5.769270e-01	2.069214e+01	8.368432e+00
0.3           	leftWall	2.397334e-01	2.138090e+01	8.867624e+00
0.3           	lowerWall	7.869968e-01	4.207051e+01	1.849875e+01
0.35          	rightWall	3.801672e-01	1.869879e+01	7.909370e+00
0.35          	leftWall	2.073415e-01	1.945774e+01	8.229284e+00
0.35          	lowerWall	1.459178e+00	4.599413e+01	1.679536e+01
0.4           	rightWall	4.001623e-01	1.711902e+01	7.562273e+00
0.4           	leftWall	1.104215e+00	1.806742e+01	7.623336e+00
0.4           	lowerWall	1.737829e+00	4.952184e+01	1.566460e+01
0.45          	rightWall	8.805205e-01	1.597755e+01	7.236692e+00
0.45          	leftWall	1.199612e+00	1.700910e+01	7.177321e+00
0.45          	lowerWall	1.947052e+00	5.668414e+01	1.476017e+01
0.5           	rightWall	9.343662e-01	1.506632e+01	7.007313e+00
0.5           	leftWall	1.230339e+00	1.617079e+01	6.693664e+00
0.5           	lowerWall	1.394754e+00	5.368556e+01	1.390721e+01
0.55          	rightWall	1.171111e+00	1.425863e+01	6.727190e+00
0.55          	leftWall	1.261291e+00	1.548084e+01	6.038311e+00
0.55          	lowerWall	1.676677e+00	5.244519e+01	1.301411e+01
0.6           	rightWall	1.344053e+00	1.367798e+01	6.500327e+00
0.6           	leftWall	1.299469e+00	1.489251e+01	5.474429e+00
0.6           	lowerWall	1.489248e+00	4.768591e+01	1.221072e+01
0.65          	rightWall	1.436004e+00	1.307013e+01	6.154556e+00
0.65          	leftWall	1.280108e+00	1.437856e+01	5.041067e+00
0.65          	lowerWall	1.280572e+00	5.855677e+01	1.163955e+01
0.7           	rightWall	1.428989e+00	1.261931e+01	5.898446e+00
0.7           	leftWall	1.203913e+00	1.392547e+01	4.625174e+00
0.7           	lowerWall	1.139774e+00	5.581418e+01	1.114345e+01
0.75          	rightWall	1.392636e+00	1.215403e+01	5.423812e+00
0.75          	leftWall	1.119115e+00	1.352112e+01	4.256118e+00
0.75          	lowerWall	1.229088e+00	4.137177e+01	1.070231e+01
0.8           	rightWall	1.206415e+00	1.170742e+01	4.765562e+00
0.8           	leftWall	7.900477e-01	1.315973e+01	3.816099e+00
0.8           	lowerWall	1.338128e+00	3.937681e+01	1.036674e+01
0.85          	rightWall	9.056773e-01	6.805666e+00	4.215838e+00
0.85          	leftWall	4.612798e-01	1.314847e+01	3.450673e+00
0.85          	lowerWall	1.376525e+00	3.731142e+01	1.004134e+01
0.9           	rightWall	5.434147e-01	6.404555e+00	4.053560e+00
0.9           	leftWall	3.897992e-01	1.314377e+01	3.165408e+00
0.9           	lowerWall	1.288053e+00	3.523253e+01	9.718419e+00
0.95          	rightWall	3.526746e-01	5.925043e+00	3.823346e+00
0.95          	leftWall	3.830338e-01	1.314538e+01	2.891085e+00
0.95          	lowerWall	1.096488e+00	3.946639e+01	9.388100e+00
1             	rightWall	4.466528e-01	5.364662e+00	3.563279e+00
1             	leftWall	2.633897e-01	1.314903e+01	2.586900e+00
1             	lowerWall	8.265982e-01	4.936199e+01	9.241392e+00
1.05          	rightWall	3.847208e-01	5.274197e+00	3.250945e+00
1.05          	leftWall	2.464854e-01	1.315462e+01	2.646452e+00
1.05          	lowerWall	5.224540e-01	7.242811e+01	9.133184e+00
1.1           	rightWall	3.639190e-01	5.206630e+00	2.938550e+00
1.1           	leftWall	3.594454e-01	1.315936e+01	2.884701e+00
1.1           	lowerWall	6.112271e-01	8.012921e+01	8.885931e+00
1.15          	rightWall	3.132416e-01	5.142744e+00	2.662629e+00
1.15          	leftWall	4.491180e-01	1.315987e+01	3.054145e+00
1.15          	lowerWall	4.655186e-01	8.410241e+01	8.729673e+00
1.2           	rightWall	3.528180e-01	5.091015e+00	2.682136e+00
1.2           	leftWall	2.822146e-01	1.315535e+01	3.170617e+00
1.2           	lowerWall	2.764719e-01	8.641431e+01	8.839372e+00
1.25          	rightWall	5.042276e-01	5.036320e+00	2.957869e+00
1.25          	leftWall	2.893515e-01	1.314885e+01	3.251770e+00
1.25          	lowerWall	4.983550e-01	8.839648e+01	9.149990e+00
1.3           	rightWall	5.278865e-01	5.379480e+00	3.232927e+00
1.3           	leftWall	1.719042e-01	1.315188e+01	3.261517e+00
1.3           	lowerWall	3.974807e-01	8.991823e+01	1.003620e+01
1.35          	rightWall	4.515032e-01	6.108067e+00	3.453862e+00
1.35          	leftWall	2.542792e-01	1.315670e+01	3.254766e+00
1.35          	lowerWall	4.419254e-01	9.117871e+01	1.116114e+01
1.4           	rightWall	5.534901e-01	6.769654e+00	3.647431e+00
1.4           	leftWall	2.510237e-01	1.315452e+01	3.206486e+00
1.4           	lowerWall	3.666692e-01	9.249706e+01	1.240945e+01
1.45          	rightWall	5.665279e-01	7.343167e+00	3.790226e+00
1.45          	leftWall	2.128706e-01	1.314758e+01	3.230325e+00
1.45          	lowerWall	2.012197e+00	9.550058e+01	1.406053e+01
1.5           	rightWall	4.836784e-01	1.257225e+01	4.021896e+00
1.5           	leftWall	3.069590e-01	1.314594e+01	3.237564e+00
1.5           	lowerWall	2.104922e+00	9.842866e+01	1.554931e+01
1.55          	rightWall	3.589341e-01	1.876332e+01	4.375822e+00
1.55          	leftWall	2.621951e-01	1.314442e+01	3.262668e+00
1.55          	lowerWall	2.028318e+00	1.012700e+02	1.695508e+01
1.6           	rightWall	2.864071e-01	2.451492e+01	4.855455e+00
1.6           	leftWall	2.510701e-01	1.313904e+01	3.277854e+00
1.6           	lowerWall	1.958934e+00	1.039578e+02	1.823575e+01
1.65          	rightWall	1.988711e-01	2.896967e+01	5.239742e+00
1.65          	leftWall	1.606437e-01	1.313252e+01	3.404030e+00
1.65          	lowerWall	1.895057e+00	1.063862e+02	1.941979e+01
1.7           	rightWall	1.945262e-01	3.194632e+01	5.650516e+00
1.7           	leftWall	1.560856e-01	1.312626e+01	3.427062e+00
1.7           	lowerWall	1.804980e+00	1.084545e+02	2.051787e+01
1.75          	rightWall	2.079771e-01	3.421172e+01	6.034083e+00
1.75          	leftWall	1.694365e-01	1.312179e+01	3.509603e+00
1.75          	lowerWall	1.214206e+00	1.102535e+02	2.152137e+01
1.8           	rightWall	1.685340e-01	3.606373e+01	6.382175e+00
1.8           	leftWall	2.888779e-01	1.321414e+01	3.631097e+00
1.8           	lowerWall	1.531559e+00	1.117872e+02	2.244558e+01
1.85          	rightWall	3.160886e-01	3.723599e+01	6.612838e+00
1.85          	leftWall	2.602128e-01	1.380462e+01	3.668888e+00
1.85          	lowerWall	1.650761e+00	1.130446e+02	2.332048e+01
1.9           	rightWall	3.268799e-01	3.823973e+01	6.956104e+00
1.9           	leftWall	2.463710e-01	1.455859e+01	3.756376e+00
1.9           	lowerWall	1.556003e+00	1.137190e+02	2.414160e+01
1.95          	rightWall	3.284684e-01	3.898807e+01	7.196293e+00
1.95          	leftWall	2.857701e-01	1.536085e+01	3.831182e+00
1.95          	lowerWall	1.411314e+00	1.138189e+02	2.493604e+01
2             	rightWall	3.375443e-01	3.951902e+01	7.297175e+00
2             	leftWall	3.539861e-01	1.626554e+01	3.941249e+00
2             	lowerWall	1.232748e+00	1.140087e+02	2.568794e+01
2.05          	rightWall	3.940965e-01	3.989344e+01	7.432780e+00
2.05          	leftWall	3.528792e-01	1.727781e+01	4.022174e+00
2.05          	lowerWall	1.007401e+00	1.134995e+02	2.642666e+01
2.1           	rightWall	3.336999e-01	4.007510e+01	7.495283e+00
2.1           	leftWall	2.556342e-01	1.826284e+01	4.191875e+00
2.1           	lowerWall	6.812580e-01	1.121640e+02	2.709631e+01
2.15          	rightWall	3.388769e-01	4.006852e+01	7.505327e+00
2.15          	leftWall	2.576505e-01	1.947494e+01	4.288676e+00
2.15          	lowerWall	3.436327e-01	1.110842e+02	2.773608e+01
2.2           	rightWall	3.956705e-01	3.992317e+01	7.473417e+00
2.2           	leftWall	3.173636e-01	2.054345e+01	4.511150e+00
2.2           	lowerWall	8.133453e-01	1.098642e+02	2.838281e+01
2.25          	rightWall	3.766451e-01	3.965515e+01	7.401725e+00
2.25          	leftWall	4.457767e-01	2.189803e+01	4.659903e+00
2.25          	lowerWall	5.081931e-01	1.097115e+02	2.901236e+01
2.3           	rightWall	4.433322e-01	3.927214e+01	7.253078e+00
2.3           	leftWall	6.448906e-01	2.315286e+01	4.954290e+00
2.3           	lowerWall	5.741561e-01	1.109205e+02	2.947995e+01
2.35          	rightWall	3.348535e-01	3.876335e+01	7.210451e+00
2.35          	leftWall	8.348748e-01	2.458016e+01	5.206627e+00
2.35          	lowerWall	4.896132e-01	9.726565e+01	2.982428e+01
2.4           	rightWall	3.270913e-01	3.810739e+01	7.296523e+00
2.4           	leftWall	1.304395e+00	2.593736e+01	5.640013e+00
2.4           	lowerWall	7.563356e-01	8.973748e+01	2.992303e+01
2.45          	rightWall	4.563801e-01	3.737042e+01	7.189536e+00
2.45          	leftWall	1.392044e+00	2.749959e+01	5.930384e+00
2.45          	lowerWall	7.387016e-01	8.049112e+01	3.003302e+01
2.5           	rightWall	5.834333e-01	3.659498e+01	7.308631e+00
2.5           	leftWall	1.439449e+00	2.889911e+01	6.455730e+00
2.5           	lowerWall	1.279255e+00	7.836374e+01	3.014699e+01
2.55          	rightWall	6.162137e-01	3.578844e+01	7.270967e+00
2.55          	leftWall	1.429006e+00	3.049638e+01	6.888426e+00
2.55          	lowerWall	1.391547e+00	8.158752e+01	3.012714e+01
2.6           	rightWall	6.370469e-01	3.487594e+01	7.357129e+00
2.6           	leftWall	1.414885e+00	3.189603e+01	7.536398e+00
2.6           	lowerWall	1.847108e+00	8.324572e+01	2.994878e+01
2.65          	rightWall	6.193061e-01	3.407834e+01	7.454349e+00
2.65          	leftWall	1.286310e+00	3.348057e+01	8.100518e+00
2.65          	lowerWall	1.556677e+00	9.939971e+01	2.999084e+01
2.7           	rightWall	7.575165e-01	3.347134e+01	7.449068e+00
2.7           	leftWall	1.011105e+00	3.485771e+01	8.774676e+00
2.7           	lowerWall	1.921407e+00	8.530177e+01	3.004636e+01
2.75          	rightWall	6.560860e-01	3.298623e+01	7.523912e+00
2.75          	leftWall	4.841548e-01	3.624162e+01	9.439398e+00
2.75          	lowerWall	2.013047e+00	9.063796e+01	3.017310e+01
2.8           	rightWall	5.223645e-01	3.262141e+01	7.602094e+00
2.8           	leftWall	4.611445e-01	3.743841e+01	1.015479e+01
2.8           	lowerWall	1.877090e+00	7.717104e+01	2.999226e+01
2.85          	rightWall	2.382259e-01	3.230181e+01	7.778454e+00
2.85          	leftWall	6.361345e-01	3.880869e+01	1.079307e+01
2.85          	lowerWall	2.098539e+00	7.401403e+01	2.990312e+01
2.9           	rightWall	3.924886e-01	3.274227e+01	8.007538e+00
2.9           	leftWall	5.433019e-01	4.020780e+01	1.142535e+01
2.9           	lowerWall	2.038674e+00	7.761812e+01	3.031611e+01
2.95          	rightWall	4.338093e-01	3.238654e+01	8.291769e+00
2.95          	leftWall	5.922875e-01	4.149731e+01	1.196748e+01
2.95          	lowerWall	1.913124e+00	7.306386e+01	3.021559e+01
3             	rightWall	3.527701e-01	3.263235e+01	8.532595e+00
3             	leftWall	6.859195e-01	4.276984e+01	1.251312e+01
3             	lowerWall	2.008314e+00	7.844155e+01	3.025012e+01
3.05          	rightWall	2.650078e-01	3.256086e+01	8.933536e+00
3.05          	leftWall	7.325594e-01	4.392442e+01	1.297616e+01
3.05          	lowerWall	2.196585e+00	9.075807e+01	3.027937e+01
3.1           	rightWall	2.844840e-01	3.246580e+01	9.226091e+00
3.1           	leftWall	7.558686e-01	4.498141e+01	1.341223e+01
3.1           	lowerWall	1.879507e+00	8.914945e+01	3.039039e+01
3.15          	rightWall	3.657598e-01	3.261020e+01	9.381056e+00
3.15          	leftWall	7.240326e-01	4.583481e+01	1.380372e+01
3.15          	lowerWall	1.489734e+00	8.837231e+01	3.068222e+01
3.2           	rightWall	1.663034e-01	3.227233e+01	9.621223e+00
3.2           	leftWall	7.682529e-01	4.663768e+01	1.412086e+01
3.2           	lowerWall	9.335809e-01	8.693043e+01	3.114242e+01
3.25          	rightWall	2.929612e-01	3.182380e+01	9.788074e+00
3.25          	leftWall	7.406420e-01	4.734779e+01	1.443200e+01
3.25          	lowerWall	8.410992e-01	9.033220e+01	3.149661e+01
3.3           	rightWall	1.331413e-01	3.164095e+01	9.772221e+00
3.3           	leftWall	7.758279e-01	4.781701e+01	1.457854e+01
3.3           	lowerWall	1.505215e+00	9.179116e+01	3.184170e+01
3.35          	rightWall	2.077352e-01	3.091283e+01	9.903293e+00
3.35          	leftWall	7.561102e-01	4.824330e+01	1.469122e+01
3.35          	lowerWall	1.730395e+00	9.288820e+01	3.210905e+01
3.4           	rightWall	2.694817e-01	3.058087e+01	9.880944e+00
3.4           	leftWall	7.501145e-01	4.854666e+01	1.486006e+01
3.4           	lowerWall	1.969774e+00	9.473543e+01	3.240997e+01
3.45          	rightWall	2.469224e-01	2.998542e+01	9.918826e+00
3.45          	leftWall	7.843062e-01	4.872561e+01	1.486419e+01
3.45          	lowerWall	1.845655e+00	9.723360e+01	3.282467e+01
3.5           	rightWall	3.258298e-01	2.941868e+01	9.855872e+00
3.5           	leftWall	7.446608e-01	4.879763e+01	1.488220e+01
3.5           	lowerWall	1.197874e+00	9.976915e+01	3.314237e+01
3.55          	rightWall	6.113348e-01	2.905190e+01	9.966586e+00
3.55          	leftWall	6.670669e-01	4.875549e+01	1.487754e+01
3.55          	lowerWall	1.109784e+00	1.021451e+02	3.343508e+01
3.6           	rightWall	6.251617e-01	2.856134e+01	9.936732e+00
3.6           	leftWall	5.928146e-01	4.858426e+01	1.477161e+01
3.6           	lowerWall	1.167409e+00	1.043612e+02	3.370771e+01
3.65          	rightWall	5.699391e-01	2.803783e+01	9.855290e+00
3.65          	leftWall	5.088798e-01	4.835043e+01	1.467087e+01
3.65          	lowerWall	1.275554e+00	1.064653e+02	3.396996e+01
3.7           	rightWall	5.524730e-01	2.783864e+01	9.877905e+00
3.7           	leftWall	3.982583e-01	4.797745e+01	1.448224e+01
3.7           	lowerWall	1.271336e+00	1.082930e+02	3.409959e+01
3.75          	rightWall	5.033300e-01	2.763964e+01	9.849879e+00
3.75          	leftWall	3.360843e-01	4.760805e+01	1.427792e+01
3.75          	lowerWall	1.075896e+00	1.093654e+02	3.427090e+01
3.8           	rightWall	4.679555e-01	2.743505e+01	9.747373e+00
3.8           	leftWall	2.685858e-01	4.712977e+01	1.410930e+01
3.8           	lowerWall	1.700651e+00	1.101050e+02	3.445361e+01
3.85          	rightWall	4.250370e-01	2.728763e+01	9.649805e+00
3.85          	leftWall	1.983832e-01	4.662343e+01	1.387376e+01
3.85          	lowerWall	1.707924e+00	1.101820e+02	3.460521e+01
3.9           	rightWall	3.771137e-01	2.721333e+01	9.642945e+00
3.9           	leftWall	1.689055e-01	4.607695e+01	1.366361e+01
3.9           	lowerWall	1.754954e+00	1.096147e+02	3.470848e+01
3.95          	rightWall	3.405576e-01	2.732255e+01	9.625354e+00
3.95          	leftWall	1.149717e-01	4.547015e+01	1.338593e+01
3.95          	lowerWall	1.834071e+00	1.085649e+02	3.474336e+01
4             	rightWall	2.783600e-01	2.747945e+01	9.547034e+00
4             	leftWall	5.870336e-02	4.487243e+01	1.309872e+01
4             	lowerWall	1.399179e+00	1.073337e+02	3.480795e+01
4.05          	rightWall	9.870249e-02	2.773440e+01	9.454408e+00
4.05          	leftWall	8.730525e-02	4.420047e+01	1.281273e+01
4.05          	lowerWall	5.902908e-01	1.070137e+02	3.473397e+01
4.1           	rightWall	1.527119e-01	2.794481e+01	9.365111e+00
4.1           	leftWall	1.803670e-01	4.352459e+01	1.251620e+01
4.1           	lowerWall	1.086944e+00	1.070567e+02	3.461417e+01
4.15          	rightWall	1.299588e-01	2.808368e+01	9.372825e+00
4.15          	leftWall	1.784955e-01	4.281694e+01	1.224039e+01
4.15          	lowerWall	1.487447e+00	1.078379e+02	3.445499e+01
4.2           	rightWall	1.885144e-01	2.856353e+01	9.421960e+00
4.2           	leftWall	1.865334e-01	4.206154e+01	1.189776e+01
4.2           	lowerWall	1.867069e+00	1.107153e+02	3.430654e+01
4.25          	rightWall	1.847939e-01	2.888248e+01	9.315985e+00
4.25          	leftWall	2.447809e-01	4.131855e+01	1.156867e+01
4.25          	lowerWall	1.890528e+00	1.117890e+02	3.413326e+01
4.3           	rightWall	3.081688e-01	2.928975e+01	9.462857e+00
4.3           	leftWall	2.612388e-01	4.053301e+01	1.122029e+01
4.3           	lowerWall	2.038838e+00	1.110396e+02	3.398866e+01
4.35          	rightWall	4.025932e-01	2.983232e+01	9.713840e+00
4.35          	leftWall	2.845146e-01	3.972393e+01	1.078807e+01
4.35          	lowerWall	2.032088e+00	1.099685e+02	3.379747e+01
4.4           	rightWall	7.444820e-01	3.033146e+01	9.878067e+00
4.4           	leftWall	2.251168e-01	3.889862e+01	1.045348e+01
4.4           	lowerWall	1.865984e+00	1.089111e+02	3.358900e+01
4.45          	rightWall	1.139900e+00	3.085833e+01	1.031543e+01
4.45          	leftWall	2.383606e-01	3.802586e+01	1.015433e+01
4.45          	lowerWall	2.029809e+00	1.080380e+02	3.336359e+01
4.5           	rightWall	1.116347e+00	3.159031e+01	1.043175e+01
4.5           	leftWall	3.332228e-01	3.714091e+01	9.802583e+00
4.5           	lowerWall	1.909928e+00	1.071839e+02	3.306290e+01
4.55          	rightWall	9.875284e-01	3.202953e+01	1.070784e+01
4.55          	leftWall	3.454963e-01	3.624703e+01	9.449164e+00
4.55          	lowerWall	1.947973e+00	1.052612e+02	3.207563e+01
4.6           	rightWall	7.310459e-01	3.275041e+01	1.091460e+01
4.6           	leftWall	2.602968e-01	3.533631e+01	9.171802e+00
4.6           	lowerWall	1.357089e+00	9.048190e+01	3.069592e+01
4.65          	rightWall	4.789707e-01	3.329696e+01	1.097331e+01
4.65          	leftWall	3.454682e-01	3.447961e+01	8.990972e+00
4.65          	lowerWall	1.637935e+00	7.487554e+01	2.950720e+01
4.7           	rightWall	3.002234e-01	3.396960e+01	1.124048e+01
4.7           	leftWall	3.374626e-01	3.361302e+01	8.955179e+00
4.7           	lowerWall	1.435747e+00	6.858455e+01	2.840892e+01
4.75          	rightWall	4.351351e-01	3.476012e+01	1.141961e+01
4.75          	leftWall	2.714679e-01	3.278194e+01	8.785056e+00
4.75          	lowerWall	1.404073e+00	6.235448e+01	2.743838e+01
4.8           	rightWall	4.370347e-01	3.567878e+01	1.153189e+01
4.8           	leftWall	3.006649e-01	3.194372e+01	8.643734e+00
4.8           	lowerWall	1.585831e+00	5.643022e+01	2.670664e+01
4.85          	rightWall	2.399940e-01	3.669891e+01	1.164901e+01
4.85          	leftWall	4.200010e-01	3.120256e+01	8.480681e+00
4.85          	lowerWall	1.637866e+00	6.307765e+01	2.639504e+01
4.9           	rightWall	3.711308e-01	3.774601e+01	1.178115e+01
4.9           	leftWall	4.834282e-01	3.044122e+01	8.328312e+00
4.9           	lowerWall	1.885434e+00	6.949384e+01	2.606341e+01
4.95          	rightWall	2.521807e-01	3.880583e+01	1.204113e+01
4.95          	leftWall	5.054883e-01	2.965560e+01	8.248498e+00
4.95          	lowerWall	1.749198e+00	7.564706e+01	2.597099e+01
5             	rightWall	3.288518e-01	3.987867e+01	1.233340e+01
5             	leftWall	3.015311e-01	2.884752e+01	8.238001e+00
5             	lowerWall	1.512257e+00	8.179644e+01	2.554426e+01
5.05          	rightWall	4.999290e-01	4.094644e+01	1.267850e+01
5.05          	leftWall	4.781196e-01	2.804581e+01	8.168836e+00
5.05          	lowerWall	6.363641e-01	8.149013e+01	2.514149e+01
5.1           	rightWall	5.645425e-01	4.196158e+01	1.297177e+01
5.1           	leftWall	1.998879e-01	2.725969e+01	8.068725e+00
5.1           	lowerWall	6.288860e-01	7.797787e+01	2.478850e+01
5.15          	rightWall	5.778563e-01	4.291240e+01	1.318372e+01
5.15          	leftWall	3.375439e-01	2.648572e+01	8.002611e+00
5.15          	lowerWall	6.428032e-01	7.941050e+01	2.451711e+01
5.2           	rightWall	5.876537e-01	4.376164e+01	1.343975e+01
5.2           	leftWall	4.163037e-01	2.575063e+01	7.981739e+00
5.2           	lowerWall	7.848129e-01	8.099122e+01	2.432805e+01
5.25          	rightWall	5.874651e-01	4.449055e+01	1.375968e+01
5.25          	leftWall	4.031888e-01	2.507732e+01	7.812329e+00
5.25          	lowerWall	5.946191e-01	8.373624e+01	2.430718e+01
5.3           	rightWall	5.636883e-01	4.516181e+01	1.400427e+01
5.3           	leftWall	3.709977e-01	2.481506e+01	7.752519e+00
5.3           	lowerWall	4.255369e-01	8.630546e+01	2.422259e+01
5.35          	rightWall	5.191852e-01	4.549205e+01	1.418881e+01
5.35          	leftWall	3.986577e-01	2.481270e+01	7.755904e+00
5.35          	lowerWall	5.455130e-01	8.841007e+01	2.421740e+01
5.4           	rightWall	4.745616e-01	4.574966e+01	1.442425e+01
5.4           	leftWall	3.919441e-01	2.497670e+01	7.726186e+00
5.4           	lowerWall	7.698840e-01	5.950546e+01	2.424714e+01
5.45          	rightWall	4.171450e-01	4.586586e+01	1.453884e+01
5.45          	leftWall	3.983345e-01	2.528086e+01	7.719219e+00
5.45          	lowerWall	1.085897e+00	7.748837e+01	2.465752e+01
5.5           	rightWall	3.943751e-01	4.587585e+01	1.470004e+01
5.5           	leftWall	5.425226e-01	2.566308e+01	7.732273e+00
5.5           	lowerWall	9.998286e-01	9.287621e+01	2.577021e+01
5.55          	rightWall	3.365529e-01	4.580437e+01	1.476360e+01
5.55          	leftWall	6.513354e-01	2.606993e+01	7.755748e+00
5.55          	lowerWall	1.215997e+00	9.766083e+01	2.634005e+01
5.6           	rightWall	2.746711e-01	4.569040e+01	1.477962e+01
5.6           	leftWall	6.325921e-01	2.648773e+01	7.778551e+00
5.6           	lowerWall	1.841461e+00	9.484493e+01	2.674479e+01
5.65          	rightWall	2.097251e-01	4.553662e+01	1.479446e+01
5.65          	leftWall	6.161687e-01	2.685377e+01	7.801463e+00
5.65          	lowerWall	1.677174e+00	8.257701e+01	2.717737e+01
5.7           	rightWall	2.207024e-01	4.533508e+01	1.473234e+01
5.7           	leftWall	6.072278e-01	2.713987e+01	7.940136e+00
5.7           	lowerWall	1.426057e+00	1.037891e+02	2.830452e+01
5.75          	rightWall	4.934268e-01	4.500397e+01	1.462919e+01
5.75          	leftWall	5.991208e-01	2.732855e+01	8.016648e+00
5.75          	lowerWall	1.100128e+00	1.072350e+02	2.928665e+01
5.8           	rightWall	5.090485e-01	4.481024e+01	1.456162e+01
5.8           	leftWall	5.813899e-01	2.740882e+01	8.018392e+00
5.8           	lowerWall	5.990958e-01	1.087460e+02	3.007806e+01
5.85          	rightWall	5.117334e-01	4.456542e+01	1.441213e+01
5.85          	leftWall	5.539187e-01	2.739546e+01	8.010008e+00
5.85          	lowerWall	8.257923e-01	1.097319e+02	3.089324e+01
5.9           	rightWall	5.378733e-01	4.428974e+01	1.427381e+01
5.9           	leftWall	1.262407e-01	2.739831e+01	8.047537e+00
5.9           	lowerWall	9.542632e-01	1.103613e+02	3.142952e+01
5.95          	rightWall	5.587138e-01	4.397776e+01	1.408716e+01
5.95          	leftWall	1.897128e-01	2.747525e+01	8.168098e+00
5.95          	lowerWall	5.815310e-01	1.077047e+02	3.206170e+01
6             	rightWall	5.373642e-01	4.361446e+01	1.382337e+01
6             	leftWall	1.901448e-01	2.745190e+01	8.207049e+00
6             	lowerWall	1.063578e+00	1.083434e+02	3.278224e+01
6.05          	rightWall	5.254615e-01	4.325046e+01	1.358684e+01
6.05          	leftWall	2.106025e-01	2.736380e+01	8.267365e+00
6.05          	lowerWall	1.323276e+00	1.098689e+02	3.331469e+01
6.1           	rightWall	3.599115e-01	4.290065e+01	1.318286e+01
6.1           	leftWall	2.738834e-01	2.742833e+01	8.512486e+00
6.1           	lowerWall	1.322986e+00	1.077076e+02	3.390738e+01
6.15          	rightWall	1.223860e-01	4.248215e+01	1.286548e+01
6.15          	leftWall	3.011676e-01	2.748048e+01	8.613390e+00
6.15          	lowerWall	1.231509e+00	1.084124e+02	3.410511e+01
6.2           	rightWall	1.462918e-01	4.202193e+01	1.252176e+01
6.2           	leftWall	5.409769e-01	2.748110e+01	8.889864e+00
6.2           	lowerWall	5.723069e-01	1.083362e+02	3.417861e+01
6.25          	rightWall	2.743976e-01	4.156230e+01	1.222174e+01
6.25          	leftWall	7.487575e-01	2.770266e+01	9.113104e+00
6.25          	lowerWall	1.299781e+00	1.085608e+02	3.414240e+01
6.3           	rightWall	2.268946e-01	4.105027e+01	1.191555e+01
6.3           	leftWall	8.487665e-01	2.787267e+01	9.415302e+00
6.3           	lowerWall	1.275642e+00	1.086870e+02	3.409971e+01
6.35          	rightWall	3.408879e-01	4.049397e+01	1.161856e+01
6.35          	leftWall	9.233717e-01	2.817058e+01	9.692536e+00
6.35          	lowerWall	1.351976e+00	1.105649e+02	3.395064e+01
6.4           	rightWall	4.262115e-01	3.986946e+01	1.126628e+01
6.4           	leftWall	1.121683e+00	2.851398e+01	9.978934e+00
6.4           	lowerWall	1.553204e+00	1.130643e+02	3.384297e+01
6.45          	rightWall	6.666401e-01	3.919664e+01	1.095601e+01
6.45          	leftWall	1.282332e+00	2.900237e+01	1.027113e+01
6.45          	lowerWall	1.513616e+00	1.134935e+02	3.376361e+01
6.5           	rightWall	7.704731e-01	3.846581e+01	1.062245e+01
6.5           	leftWall	1.298946e+00	2.952351e+01	1.066378e+01
6.5           	lowerWall	9.488816e-01	1.127793e+02	3.363666e+01
6.55          	rightWall	1.122819e+00	3.768704e+01	1.038480e+01
6.55          	leftWall	1.414359e+00	3.024361e+01	1.096700e+01
6.55          	lowerWall	6.919401e-01	1.115551e+02	3.344885e+01
6.6           	rightWall	1.041214e+00	3.686265e+01	9.887390e+00
6.6           	leftWall	1.344337e+00	3.101834e+01	1.121562e+01
6.6           	lowerWall	1.434230e+00	1.094404e+02	3.321572e+01
6.65          	rightWall	9.500669e-01	3.606108e+01	9.429042e+00
6.65          	leftWall	1.238295e+00	3.171849e+01	1.151252e+01
6.65          	lowerWall	1.468990e+00	1.066624e+02	3.292126e+01
6.7           	rightWall	3.361986e-01	3.523299e+01	8.995242e+00
6.7           	leftWall	1.055436e+00	3.267436e+01	1.161909e+01
6.7           	lowerWall	1.554072e+00	1.045858e+02	3.270836e+01
6.75          	rightWall	5.912079e-01	3.441788e+01	8.744686e+00
6.75          	leftWall	7.984517e-01	3.354989e+01	1.190497e+01
6.75          	lowerWall	1.690928e+00	9.152677e+01	3.228324e+01
6.8           	rightWall	5.915963e-01	3.358186e+01	8.513508e+00
6.8           	leftWall	4.725899e-01	3.460685e+01	1.195672e+01
6.8           	lowerWall	1.717556e+00	8.375748e+01	3.167172e+01
6.85          	rightWall	7.365009e-01	3.270252e+01	8.278546e+00
6.85          	leftWall	2.720317e-01	3.555008e+01	1.209858e+01
6.85          	lowerWall	2.028560e+00	8.210612e+01	3.056948e+01
6.9           	rightWall	8.135691e-01	3.184087e+01	8.159126e+00
6.9           	leftWall	4.607178e-01	3.662016e+01	1.225646e+01
6.9           	lowerWall	1.984224e+00	7.169824e+01	2.973145e+01
6.95          	rightWall	7.642607e-01	3.120490e+01	8.052981e+00
6.95          	leftWall	4.845754e-01	3.777966e+01	1.238285e+01
6.95          	lowerWall	1.834875e+00	6.781213e+01	2.877189e+01
7             	rightWall	7.757300e-01	3.063500e+01	7.913196e+00
7             	leftWall	4.864031e-01	3.894924e+01	1.249719e+01
7             	lowerWall	1.886358e+00	6.502229e+01	2.778553e+01
7.05          	rightWall	8.657193e-01	3.007230e+01	7.958083e+00
7.05          	leftWall	4.114594e-01	4.006140e+01	1.269728e+01
7.05          	lowerWall	1.929357e+00	6.059153e+01	2.679322e+01
7.1           	rightWall	8.089735e-01	2.952631e+01	8.010838e+00
7.1           	leftWall	3.395034e-01	4.116615e+01	1.287390e+01
7.1           	lowerWall	1.645542e+00	5.750016e+01	2.594761e+01
7.15          	rightWall	8.381163e-01	2.895621e+01	7.947754e+00
7.15          	leftWall	3.189988e-01	4.220395e+01	1.304620e+01
7.15          	lowerWall	1.602871e+00	6.664692e+01	2.527768e+01
7.2           	rightWall	8.367991e-01	2.845667e+01	8.036297e+00
7.2           	leftWall	3.344520e-01	4.320209e+01	1.322295e+01
7.2           	lowerWall	1.518447e+00	6.247349e+01	2.510966e+01
7.25          	rightWall	8.262949e-01	2.801329e+01	8.035780e+00
7.25          	leftWall	2.816852e-01	4.409682e+01	1.340440e+01
7.25          	lowerWall	1.038299e+00	6.486281e+01	2.480842e+01
7.3           	rightWall	8.255282e-01	2.762960e+01	8.194541e+00
7.3           	leftWall	1.285665e-01	4.486942e+01	1.358177e+01
7.3           	lowerWall	9.485721e-01	6.931091e+01	2.471932e+01
7.35          	rightWall	7.869934e-01	2.760311e+01	8.290209e+00
7.35          	leftWall	2.338901e-01	4.550906e+01	1.373790e+01
7.35          	lowerWall	1.272373e+00	7.539516e+01	2.496662e+01
7.4           	rightWall	7.907534e-01	2.799559e+01	8.396067e+00
7.4           	leftWall	2.749159e-01	4.609278e+01	1.389131e+01
7.4           	lowerWall	1.209243e+00	7.919757e+01	2.547856e+01
7.45          	rightWall	7.512676e-01	2.813501e+01	8.569021e+00
7.45          	leftWall	3.682377e-01	4.653877e+01	1.400774e+01
7.45          	lowerWall	1.227277e+00	8.404474e+01	2.582107e+01
7.5           	rightWall	7.259272e-01	2.826564e+01	8.578888e+00
7.5           	leftWall	5.181817e-01	4.683945e+01	1.407577e+01
7.5           	lowerWall	9.602284e-01	8.857549e+01	2.620134e+01
7.55          	rightWall	6.801490e-01	2.841209e+01	8.665637e+00
7.55          	leftWall	6.185598e-01	4.697549e+01	1.403618e+01
7.55          	lowerWall	8.073301e-01	9.284712e+01	2.658744e+01
7.6           	rightWall	6.557800e-01	2.837211e+01	8.839870e+00
7.6           	leftWall	6.295322e-01	4.707110e+01	1.404841e+01
7.6           	lowerWall	5.381482e-01	9.669270e+01	2.719433e+01
7.65          	rightWall	6.136215e-01	2.818362e+01	8.847852e+00
7.65          	leftWall	6.430316e-01	4.707207e+01	1.399435e+01
7.65          	lowerWall	1.125492e+00	1.000197e+02	2.789632e+01
7.7           	rightWall	6.127759e-01	2.799775e+01	8.831604e+00
7.7           	leftWall	6.624882e-01	4.692929e+01	1.396054e+01
7.7           	lowerWall	1.431872e+00	1.029484e+02	2.875131e+01
7.75          	rightWall	5.509021e-01	2.794956e+01	8.901490e+00
7.75          	leftWall	6.823415e-01	4.676831e+01	1.381177e+01
7.75          	lowerWall	8.151293e-01	1.056004e+02	2.947914e+01
7.8           	rightWall	5.154776e-01	2.785163e+01	8.968937e+00