# Solver information
# Time        	k_solver      	k_initial     	k_final       	k_iters       	k_converged   	omega_solver  	omega_initial 	omega_final   	omega_iters   	omega_converged	p_rgh_solver  	p_rgh_initial 	p_rgh_final   	p_rgh_iters   	p_rgh_converged
0.0125        	smoothSolver	1.000000e+00	1.555400e-02	1000	false	smoothSolver	1.428910e-01	2.064660e-05	1000	false	GAMG	1.000000e+00	7.471180e-03	7	true
0.021875      	smoothSolver	1.620660e-01	1.123450e-06	1000	false	smoothSolver	1.202380e-01	9.913520e-08	608	true	GAMG	2.310470e-02	9.866990e-05	2	true
0.03125       	smoothSolver	7.350230e-02	6.573910e-07	1000	false	smoothSolver	7.480150e-02	9.918710e-08	605	true	GAMG	2.283580e-02	7.915470e-05	2	true
0.040625      	smoothSolver	4.440780e-02	4.374180e-07	1000	false	smoothSolver	5.574670e-02	9.999820e-08	589	true	GAMG	2.365790e-02	9.815050e-05	2	true
0.05          	smoothSolver	3.089730e-02	3.007560e-07	1000	false	smoothSolver	4.494890e-02	9.954310e-08	569	true	GAMG	2.683120e-02	7.590910e-05	2	true
0.06          	smoothSolver	2.396560e-02	3.284930e-07	1000	false	smoothSolver	3.955120e-02	9.961320e-08	585	true	GAMG	2.449940e-02	7.926550e-05	2	true
0.07          	smoothSolver	1.881690e-02	2.340800e-07	1000	false	smoothSolver	3.400420e-02	9.970700e-08	562	true	GAMG	2.347160e-02	7.819910e-05	2	true
0.08          	smoothSolver	1.537930e-02	1.705550e-07	1000	false	smoothSolver	2.988190e-02	9.991600e-08	541	true	GAMG	2.659210e-02	8.583620e-05	2	true
0.09          	smoothSolver	1.294250e-02	1.266220e-07	1000	false	smoothSolver	2.667910e-02	9.880620e-08	523	true	GAMG	2.217910e-02	5.987780e-05	2	true
0.1           	smoothSolver	1.113480e-02	9.952290e-08	995	true	smoothSolver	2.411360e-02	9.981340e-08	505	true	GAMG	1.825780e-02	6.122280e-05	2	true
0.11          	smoothSolver	9.745480e-03	9.957080e-08	963	true	smoothSolver	2.200690e-02	9.890730e-08	490	true	GAMG	1.731940e-02	5.229370e-05	2	true
0.12          	smoothSolver	8.670000e-03	9.947640e-08	938	true	smoothSolver	2.026670e-02	9.983700e-08	477	true	GAMG	1.598290e-02	4.899440e-05	2	true
0.13          	smoothSolver	7.803090e-03	9.960490e-08	912	true	smoothSolver	1.878630e-02	9.911100e-08	464	true	GAMG	1.522360e-02	6.430260e-05	2	true
0.14          	smoothSolver	7.057300e-03	9.990580e-08	888	true	smoothSolver	1.746860e-02	9.957310e-08	451	true	GAMG	1.685450e-02	5.003860e-05	2	true
0.15          	smoothSolver	6.427650e-03	9.935910e-08	867	true	smoothSolver	1.631550e-02	9.978000e-08	439	true	GAMG	1.398410e-02	5.226930e-05	2	true
0.16          	smoothSolver	5.886910e-03	9.944870e-08	847	true	smoothSolver	1.529880e-02	9.947630e-08	428	true	GAMG	1.240600e-02	3.148700e-05	2	true
0.17          	smoothSolver	5.439330e-03	9.999270e-08	832	true	smoothSolver	1.440290e-02	9.871170e-08	421	true	GAMG	1.140020e-02	4.266650e-05	2	true
0.18          	smoothSolver	5.036860e-03	9.978250e-08	815	true	smoothSolver	1.360460e-02	9.930870e-08	410	true	GAMG	9.460140e-03	2.516200e-05	2	true
0.19          	smoothSolver	4.687250e-03	9.953010e-08	795	true	smoothSolver	1.279830e-02	9.961920e-08	396	true	GAMG	7.180470e-03	2.772400e-05	2	true
0.2           	smoothSolver	4.354110e-03	9.966260e-08	782	true	smoothSolver	1.209150e-02	9.854620e-08	389	true	GAMG	6.892430e-03	2.109650e-05	2	true
0.21          	smoothSolver	4.091670e-03	9.972890e-08	773	true	smoothSolver	1.148740e-02	9.936180e-08	384	true	GAMG	6.753660e-03	2.575310e-05	2	true
0.22          	smoothSolver	3.837900e-03	9.959320e-08	760	true	smoothSolver	1.091690e-02	9.905950e-08	375	true	GAMG	7.980190e-03	2.520250e-05	2	true
0.23          	smoothSolver	3.612600e-03	9.923970e-08	748	true	smoothSolver	1.038260e-02	9.956880e-08	366	true	GAMG	6.726080e-03	2.407630e-05	2	true
0.24          	smoothSolver	3.466900e-03	9.987410e-08	737	true	smoothSolver	9.912360e-03	9.955380e-08	359	true	GAMG	5.919740e-03	1.787900e-05	2	true
0.25          	smoothSolver	3.249460e-03	9.959110e-08	728	true	smoothSolver	9.493160e-03	9.964070e-08	353	true	GAMG	5.271600e-03	2.394730e-05	2	true
0.2625        	smoothSolver	3.371970e-03	9.995120e-08	886	true	smoothSolver	1.026090e-02	9.884640e-08	438	true	GAMG	6.094210e-03	1.927230e-05	2	true
0.275         	smoothSolver	3.189110e-03	9.966490e-08	871	true	smoothSolver	9.704000e-03	9.861570e-08	426	true	GAMG	5.522040e-03	1.875040e-05	2	true
0.2875        	smoothSolver	3.049490e-03	9.967310e-08	858	true	smoothSolver	9.222060e-03	9.867210e-08	417	true	GAMG	4.774090e-03	1.675960e-05	2	true
0.3           	smoothSolver	2.849610e-03	9.944010e-08	846	true	smoothSolver	8.834310e-03	9.860110e-08	409	true	GAMG	4.358150e-03	1.475160e-05	2	true
0.3125        	smoothSolver	2.708860e-03	9.927690e-08	840	true	smoothSolver	8.335080e-03	9.925050e-08	408	true	GAMG	3.372620e-03	1.184870e-05	2	true
0.325         	smoothSolver	2.582840e-03	9.943380e-08	821	true	smoothSolver	7.915490e-03	9.974860e-08	391	true	GAMG	3.680420e-03	1.409450e-05	2	true
0.3375        	smoothSolver	2.440970e-03	9.936280e-08	819	true	smoothSolver	7.563510e-03	9.993930e-08	396	true	GAMG	3.777020e-03	1.041130e-05	2	true
0.35          	smoothSolver	2.343150e-03	9.994520e-08	800	true	smoothSolver	7.257530e-03	9.940120e-08	383	true	GAMG	4.502610e-03	1.999910e-05	2	true
0.36          	smoothSolver	2.047030e-03	9.892490e-08	655	true	smoothSolver	6.190720e-03	9.888620e-08	316	true	GAMG	3.921620e-03	1.087800e-05	2	true
0.37          	smoothSolver	2.062330e-03	9.953420e-08	650	true	smoothSolver	6.009400e-03	9.828330e-08	325	true	GAMG	4.899990e-03	1.736770e-05	2	true
0.38          	smoothSolver	1.913560e-03	9.957970e-08	643	true	smoothSolver	5.910810e-03	9.955170e-08	315	true	GAMG	5.837570e-03	1.415960e-05	2	true
0.39          	smoothSolver	1.885910e-03	9.958960e-08	638	true	smoothSolver	5.671260e-03	9.990200e-08	326	true	GAMG	6.680320e-03	2.452850e-05	2	true
0.4           	smoothSolver	1.834250e-03	9.982840e-08	641	true	smoothSolver	5.734120e-03	9.844120e-08	328	true	GAMG	7.024400e-03	1.732950e-05	2	true
0.408333      	smoothSolver	1.724670e-03	9.902040e-08	529	true	smoothSolver	4.965560e-03	9.971050e-08	276	true	GAMG	4.857750e-03	1.762020e-05	2	true
0.416667      	smoothSolver	1.727040e-03	9.975530e-08	535	true	smoothSolver	4.855150e-03	9.807530e-08	278	true	GAMG	5.111960e-03	1.707410e-05	2	true
0.425         	smoothSolver	1.795370e-03	9.901640e-08	533	true	smoothSolver	4.726420e-03	9.882940e-08	285	true	GAMG	5.873170e-03	2.160540e-05	2	true
0.433333      	smoothSolver	1.798780e-03	9.880400e-08	532	true	smoothSolver	4.696850e-03	9.902240e-08	289	true	GAMG	6.741540e-03	2.537330e-05	2	true
0.441667      	smoothSolver	1.754470e-03	9.903390e-08	519	true	smoothSolver	4.619030e-03	9.921810e-08	285	true	GAMG	7.433830e-03	2.989830e-05	2	true
0.45          	smoothSolver	1.781970e-03	9.890660e-08	520	true	smoothSolver	4.501730e-03	9.950230e-08	289	true	GAMG	8.310830e-03	3.231470e-05	2	true
0.457143      	smoothSolver	1.694710e-03	9.991070e-08	454	true	smoothSolver	4.125570e-03	9.879950e-08	254	true	GAMG	7.456070e-03	3.087790e-05	2	true
0.464286      	smoothSolver	1.647520e-03	9.944020e-08	456	true	smoothSolver	4.052500e-03	9.983650e-08	256	true	GAMG	8.206410e-03	3.281710e-05	2	true
0.471429      	smoothSolver	1.591700e-03	9.942290e-08	457	true	smoothSolver	3.959850e-03	9.942740e-08	258	true	GAMG	9.564550e-03	3.434230e-05	2	true
0.478571      	smoothSolver	1.683070e-03	9.938770e-08	458	true	smoothSolver	3.908820e-03	9.873970e-08	261	true	GAMG	1.038750e-02	3.391660e-05	2	true
0.485714      	smoothSolver	2.632660e-03	9.935210e-08	462	true	smoothSolver	4.164060e-03	9.782970e-08	267	true	GAMG	1.275890e-02	4.279830e-05	2	true
0.492857      	smoothSolver	2.895550e-03	9.997640e-08	463	true	smoothSolver	4.222930e-03	9.884640e-08	269	true	GAMG	1.387310e-02	4.093150e-05	2	true
0.5           	smoothSolver	2.276800e-03	9.952070e-08	462	true	smoothSolver	3.974030e-03	9.882640e-08	270	true	GAMG	1.661220e-02	5.125140e-05	2	true
0.507143      	smoothSolver	1.893470e-03	9.964680e-08	460	true	smoothSolver	3.746200e-03	9.793680e-08	271	true	GAMG	1.951790e-02	5.981400e-05	2	true
0.514286      	smoothSolver	1.859620e-03	9.983700e-08	458	true	smoothSolver	3.673520e-03	9.966170e-08	271	true	GAMG	2.464190e-02	6.645320e-05	2	true
0.521429      	smoothSolver	1.551560e-03	9.958630e-08	457	true	smoothSolver	3.429780e-03	9.925470e-08	272	true	GAMG	1.406960e-02	4.062370e-05	2	true
0.528571      	smoothSolver	1.541580e-03	9.904960e-08	457	true	smoothSolver	3.387600e-03	9.831840e-08	273	true	GAMG	1.340730e-02	4.409010e-05	2	true
0.535714      	smoothSolver	1.422920e-03	9.848790e-08	457	true	smoothSolver	3.269230e-03	9.826190e-08	274	true	GAMG	1.422880e-02	1.379240e-04	1	true
0.542857      	smoothSolver	1.374910e-03	9.943110e-08	456	true	smoothSolver	3.199260e-03	9.808320e-08	275	true	GAMG	1.432110e-02	4.964900e-05	2	true
0.55          	smoothSolver	1.328020e-03	9.955630e-08	446	true	smoothSolver	3.144020e-03	9.989300e-08	271	true	GAMG	1.757220e-02	4.657540e-05	2	true
0.557143      	smoothSolver	1.215160e-03	9.855590e-08	448	true	smoothSolver	3.033130e-03	9.882350e-08	273	true	GAMG	1.806230e-02	6.912600e-05	2	true
0.564286      	smoothSolver	1.255060e-03	9.909210e-08	449	true	smoothSolver	3.020250e-03	9.975050e-08	274	true	GAMG	1.879890e-02	4.404890e-05	2	true
0.571429      	smoothSolver	1.240900e-03	9.864630e-08	450	true	smoothSolver	2.970890e-03	9.995660e-08	275	true	GAMG	1.795070e-02	7.493760e-05	2	true
0.578571      	smoothSolver	1.204310e-03	9.864300e-08	450	true	smoothSolver	2.921500e-03	9.780500e-08	276	true	GAMG	1.973810e-02	4.772860e-05	2	true
0.585714      	smoothSolver	1.144970e-03	9.888430e-08	450	true	smoothSolver	2.851280e-03	9.973230e-08	276	true	GAMG	2.079220e-02	8.677160e-05	2	true
0.592857      	smoothSolver	1.142380e-03	9.975990e-08	449	true	smoothSolver	2.832140e-03	9.819740e-08	277	true	GAMG	2.671100e-02	2.408770e-04	1	true
0.6           	smoothSolver	1.160590e-03	9.965700e-08	449	true	smoothSolver	2.807720e-03	9.977620e-08	277	true	GAMG	2.530920e-02	9.774350e-05	2	true
0.607143      	smoothSolver	1.046590e-03	9.939550e-08	439	true	smoothSolver	2.714240e-03	9.813970e-08	274	true	GAMG	1.732600e-02	6.385220e-05	2	true
0.614286      	smoothSolver	1.105820e-03	9.933100e-08	441	true	smoothSolver	2.706170e-03	9.946230e-08	275	true	GAMG	1.734510e-02	4.931970e-05	2	true
0.621429      	smoothSolver	1.083860e-03	9.920660e-08	442	true	smoothSolver	2.658580e-03	9.842850e-08	276	true	GAMG	1.921630e-02	7.293330e-05	2	true
0.628571      	smoothSolver	1.069210e-03	9.989520e-08	442	true	smoothSolver	2.616760e-03	9.907560e-08	276	true	GAMG	1.938210e-02	1.866260e-04	1	true
0.635714      	smoothSolver	1.020210e-03	9.960790e-08	433	true	smoothSolver	2.567960e-03	9.963000e-08	272	true	GAMG	2.131970e-02	8.227890e-05	2	true
0.642857      	smoothSolver	1.038110e-03	9.949050e-08	435	true	smoothSolver	2.539500e-03	9.906860e-08	273	true	GAMG	2.198400e-02	1.938750e-04	1	true
0.65          	smoothSolver	1.054560e-03	9.971660e-08	439	true	smoothSolver	2.517870e-03	9.982690e-08	275	true	GAMG	2.425620e-02	9.616120e-05	2	true
0.65625       	smoothSolver	9.587910e-04	9.977900e-08	381	true	smoothSolver	2.296330e-03	9.990490e-08	239	true	GAMG	2.375170e-02	2.084220e-04	1	true
0.6625        	smoothSolver	9.604140e-04	9.949480e-08	385	true	smoothSolver	2.271050e-03	9.819930e-08	241	true	GAMG	2.421580e-02	9.822700e-05	2	true
0.66875       	smoothSolver	9.089950e-04	9.836760e-08	382	true	smoothSolver	2.222640e-03	9.878100e-08	240	true	GAMG	2.535180e-02	1.932910e-04	1	true
0.675         	smoothSolver	9.451400e-04	9.865250e-08	385	true	smoothSolver	2.226930e-03	9.801370e-08	241	true	GAMG	2.372880e-02	8.765990e-05	2	true
0.68125       	smoothSolver	9.226150e-04	9.907420e-08	379	true	smoothSolver	2.202020e-03	9.908110e-08	238	true	GAMG	1.219960e-02	5.204500e-05	2	true
0.6875        	smoothSolver	8.891110e-04	9.890950e-08	386	true	smoothSolver	2.164680e-03	9.772120e-08	242	true	GAMG	1.295510e-02	4.839260e-05	2	true
0.69375       	smoothSolver	8.991080e-04	9.975310e-08	379	true	smoothSolver	2.143130e-03	9.948900e-08	238	true	GAMG	1.574170e-02	6.457400e-05	2	true
0.7           	smoothSolver	9.050550e-04	9.842060e-08	384	true	smoothSolver	2.119450e-03	9.769080e-08	240	true	GAMG	1.775300e-02	4.449400e-05	2	true
0.707143      	smoothSolver	9.307650e-04	9.948700e-08	427	true	smoothSolver	2.238310e-03	9.919590e-08	269	true	GAMG	2.287480e-02	8.141130e-05	2	true
0.714286      	smoothSolver	9.764190e-04	9.916680e-08	435	true	smoothSolver	2.234320e-03	9.930060e-08	274	true	GAMG	2.348320e-02	2.021550e-04	1	true
0.721429      	smoothSolver	9.402470e-04	9.899930e-08	426	true	smoothSolver	2.200870e-03	9.991490e-08	268	true	GAMG	2.452330e-02	8.847900e-05	2	true
0.728571      	smoothSolver	9.289730e-04	9.884360e-08	424	true	smoothSolver	2.167090e-03	9.878690e-08	269	true	GAMG	2.808600e-02	2.438780e-04	1	true
0.735714      	smoothSolver	9.079820e-04	9.898320e-08	417	true	smoothSolver	2.138150e-03	9.962040e-08	264	true	GAMG	3.047910e-02	1.158650e-04	2	true
0.742857      	smoothSolver	8.588040e-04	9.947750e-08	425	true	smoothSolver	2.099390e-03	9.995110e-08	268	true	GAMG	3.079520e-02	2.678950e-04	1	true
0.75          	smoothSolver	9.525980e-04	9.940410e-08	418	true	smoothSolver	2.129350e-03	9.975000e-08	263	true	GAMG	2.097550e-02	8.603580e-05	2	true
0.757143      	smoothSolver	8.513630e-04	9.973090e-08	422	true	smoothSolver	2.061160e-03	9.883650e-08	269	true	GAMG	1.524090e-02	6.579060e-05	2	true
0.764286      	smoothSolver	9.312720e-04	9.949740e-08	417	true	smoothSolver	2.072870e-03	9.927160e-08	266	true	GAMG	1.428980e-02	5.412570e-05	2	true
0.771429      	smoothSolver	7.999110e-04	9.860760e-08	416	true	smoothSolver	2.007560e-03	9.834180e-08	266	true	GAMG	1.821000e-02	7.877720e-05	2	true
0.778571      	smoothSolver	8.471130e-04	9.914860e-08	421	true	smoothSolver	2.004230e-03	9.798960e-08	267	true	GAMG	2.060430e-02	1.949130e-04	1	true
0.785714      	smoothSolver	8.435920e-04	9.889980e-08	421	true	smoothSolver	1.981660e-03	9.929950e-08	268	true	GAMG	2.285500e-02	8.405530e-05	2	true
0.792857      	smoothSolver	8.258650e-04	9.987140e-08	413	true	smoothSolver	1.952960e-03	9.865630e-08	263	true	GAMG	2.395960e-02	1.809600e-04	1	true
0.8           	smoothSolver	8.241360e-04	9.930690e-08	415	true	smoothSolver	1.931790e-03	9.884300e-08	266	true	GAMG	2.372930e-02	8.903720e-05	2	true
0.807143      	smoothSolver	7.981510e-04	9.953890e-08	412	true	smoothSolver	1.903480e-03	9.823700e-08	265	true	GAMG	2.727030e-02	1.967160e-04	1	true
0.814286      	smoothSolver	7.894300e-04	9.900170e-08	411	true	smoothSolver	1.886360e-03	9.981190e-08	264	true	GAMG	2.971320e-02	1.168830e-04	2	true
0.821429      	smoothSolver	7.987730e-04	9.925390e-08	414	true	smoothSolver	1.872480e-03	9.818590e-08	268	true	GAMG	2.693510e-02	8.249090e-05	2	true
0.828571      	smoothSolver	8.254840e-04	9.974840e-08	400	true	smoothSolver	1.858440e-03	9.963240e-08	263	true	GAMG	1.454710e-02	5.908910e-05	2	true
0.835714      	smoothSolver	7.884350e-04	9.906530e-08	407	true	smoothSolver	1.825950e-03	9.810340e-08	268	true	GAMG	1.353030e-02	5.794640e-05	2	true
0.842857      	smoothSolver	7.591030e-04	9.971620e-08	405	true	smoothSolver	1.795400e-03	9.925340e-08	266	true	GAMG	1.461780e-02	4.510810e-05	2	true
0.85          	smoothSolver	7.739720e-04	9.916920e-08	412	true	smoothSolver	1.772790e-03	9.899560e-08	270	true	GAMG	1.704800e-02	6.688400e-05	2	true
0.857143      	smoothSolver	7.468220e-04	9.937090e-08	404	true	smoothSolver	1.745670e-03	9.998850e-08	264	true	GAMG	1.949270e-02	1.831850e-04	1	true
0.864286      	smoothSolver	7.995880e-04	9.862230e-08	414	true	smoothSolver	1.745420e-03	9.844780e-08	274	true	GAMG	1.993220e-02	7.186320e-05	2	true
0.871429      	smoothSolver	7.305110e-04	9.973490e-08	400	true	smoothSolver	1.702890e-03	9.967490e-08	267	true	GAMG	2.034990e-02	1.519120e-04	1	true
0.878571      	smoothSolver	7.204960e-04	9.875780e-08	410	true	smoothSolver	1.680350e-03	9.860840e-08	272	true	GAMG	2.056460e-02	7.238940e-05	2	true
0.885714      	smoothSolver	7.284570e-04	9.864990e-08	407	true	smoothSolver	1.669550e-03	9.968330e-08	271	true	GAMG	2.306790e-02	1.724290e-04	1	true
0.892857      	smoothSolver	7.262000e-04	9.907620e-08	417	true	smoothSolver	1.658710e-03	9.821080e-08	277	true	GAMG	2.415450e-02	9.361850e-05	2	true
0.9           	smoothSolver	6.977000e-04	9.991330e-08	403	true	smoothSolver	1.648440e-03	9.804790e-08	271	true	GAMG	2.439940e-02	1.719820e-04	1	true
0.907143      	smoothSolver	7.074890e-04	9.995550e-08	408	true	smoothSolver	1.679940e-03	9.791250e-08	273	true	GAMG	1.827210e-02	7.719120e-05	2	true
0.914286      	smoothSolver	6.329820e-04	9.962990e-08	416	true	smoothSolver	1.650660e-03	9.869190e-08	277	true	GAMG	1.251850e-02	4.780640e-05	2	true
0.921429      	smoothSolver	6.888790e-04	9.901080e-08	409	true	smoothSolver	1.639920e-03	9.833120e-08	273	true	GAMG	1.263550e-02	4.114640e-05	2	true
0.928571      	smoothSolver	6.722980e-04	9.983160e-08	416	true	smoothSolver	1.612730e-03	9.899380e-08	277	true	GAMG	1.380280e-02	5.734820e-05	2	true
0.935714      	smoothSolver	6.937600e-04	9.951210e-08	413	true	smoothSolver	1.605910e-03	9.887190e-08	275	true	GAMG	1.477000e-02	3.816360e-05	2	true
0.942857      	smoothSolver	6.223500e-04	9.868160e-08	409	true	smoothSolver	1.558740e-03	9.789360e-08	274	true	GAMG	1.584530e-02	6.181760e-05	2	true
0.95          	smoothSolver	6.785930e-04	9.890360e-08	421	true	smoothSolver	1.558280e-03	9.877480e-08	279	true	GAMG	1.605440e-02	1.412680e-04	1	true
0.957143      	smoothSolver	6.189670e-04	9.952640e-08	409	true	smoothSolver	1.518260e-03	9.875360e-08	274	true	GAMG	1.633530e-02	6.232460e-05	2	true
0.964286      	smoothSolver	6.493810e-04	9.902250e-08	414	true	smoothSolver	1.502660e-03	9.983450e-08	275	true	GAMG	1.665810e-02	1.490830e-04	1	true
0.971429      	smoothSolver	7.098500e-04	9.983900e-08	546	true	smoothSolver	1.532830e-03	9.995150e-08	326	true	GAMG	1.855990e-02	6.841020e-05	2	true
0.978571      	smoothSolver	7.426010e-04	9.952440e-08	587	true	smoothSolver	1.537310e-03	9.947440e-08	342	true	GAMG	1.835810e-02	1.678020e-04	1	true
0.985714      	smoothSolver	6.411880e-04	9.950100e-08	613	true	smoothSolver	1.496960e-03	9.868230e-08	352	true	GAMG	1.799660e-02	6.926420e-05	2	true
0.992857      	smoothSolver	7.327850e-04	9.976060e-08	624	true	smoothSolver	1.513210e-03	9.983000e-08	354	true	GAMG	1.867380e-02	1.687790e-04	1	true
1             	smoothSolver	7.776240e-04	9.960160e-08	624	true	smoothSolver	1.517660e-03	9.853640e-08	355	true	GAMG	1.975880e-02	6.681780e-05	2	true
1.00714       	smoothSolver	7.962010e-04	9.946940e-08	627	true	smoothSolver	1.514800e-03	9.898060e-08	352	true	GAMG	1.166680e-02	4.346170e-05	2	true
1.01429       	smoothSolver	7.409160e-04	9.960590e-08	630	true	smoothSolver	1.564130e-03	9.942740e-08	354	true	GAMG	9.832030e-03	3.354620e-05	2	true
1.02143       	smoothSolver	7.711570e-04	9.913160e-08	625	true	smoothSolver	1.559470e-03	9.854450e-08	348	true	GAMG	1.104350e-02	4.546840e-05	2	true
1.02857       	smoothSolver	7.441100e-04	9.945320e-08	630	true	smoothSolver	1.494190e-03	9.892050e-08	352	true	GAMG	1.199180e-02	3.559340e-05	2	true
1.03571       	smoothSolver	7.902110e-04	9.913140e-08	627	true	smoothSolver	1.477780e-03	9.834100e-08	347	true	GAMG	1.239750e-02	4.664670e-05	2	true
1.04286       	smoothSolver	8.096210e-04	9.959130e-08	623	true	smoothSolver	1.452540e-03	9.939160e-08	345	true	GAMG	1.167780e-02	3.453580e-05	2	true
1.05          	smoothSolver	7.764620e-04	9.986180e-08	621	true	smoothSolver	1.424740e-03	9.830000e-08	344	true	GAMG	1.196190e-02	4.650770e-05	2	true
1.05714       	smoothSolver	8.060370e-04	9.900780e-08	621	true	smoothSolver	1.409650e-03	9.833010e-08	342	true	GAMG	1.235010e-02	3.887780e-05	2	true
1.06429       	smoothSolver	8.285910e-04	9.927780e-08	620	true	smoothSolver	1.398200e-03	9.923780e-08	341	true	GAMG	1.277170e-02	5.111940e-05	2	true
1.07143       	smoothSolver	8.246150e-04	9.976430e-08	622	true	smoothSolver	1.378890e-03	9.859770e-08	341	true	GAMG	1.308470e-02	4.074990e-05	2	true
1.07857       	smoothSolver	8.469640e-04	9.908900e-08	624	true	smoothSolver	1.374880e-03	9.997710e-08	342	true	GAMG	1.319800e-02	5.183590e-05	2	true
1.08571       	smoothSolver	9.427000e-04	9.895000e-08	621	true	smoothSolver	1.383830e-03	9.897010e-08	340	true	GAMG	1.317230e-02	3.920370e-05	2	true
1.09286       	smoothSolver	9.745350e-04	9.928690e-08	615	true	smoothSolver	1.374650e-03	9.998800e-08	336	true	GAMG	1.252260e-02	4.990700e-05	2	true
1.1           	smoothSolver	9.947890e-04	9.924220e-08	617	true	smoothSolver	1.383880e-03	9.989720e-08	338	true	GAMG	1.250880e-02	3.568440e-05	2	true
1.10714       	smoothSolver	1.205100e-03	9.910900e-08	620	true	smoothSolver	1.442550e-03	9.856850e-08	340	true	GAMG	1.319010e-02	4.854810e-05	2	true
1.11429       	smoothSolver	1.173290e-03	9.989380e-08	622	true	smoothSolver	1.425970e-03	9.878130e-08	343	true	GAMG	1.432860e-02	3.811430e-05	2	true
1.12143       	smoothSolver	1.512170e-03	9.992660e-08	615	true	smoothSolver	1.523640e-03	9.852250e-08	339	true	GAMG	1.479090e-02	5.082500e-05	2	true
1.12857       	smoothSolver	2.409000e-03	9.913370e-08	625	true	smoothSolver	1.818960e-03	9.909310e-08	345	true	GAMG	1.137870e-02	3.512950e-05	2	true
1.13571       	smoothSolver	2.172810e-03	9.934370e-08	623	true	smoothSolver	1.768930e-03	9.917260e-08	346	true	GAMG	9.027230e-03	2.772370e-05	2	true
1.14286       	smoothSolver	1.061270e-03	9.971860e-08	631	true	smoothSolver	1.352870e-03	9.932470e-08	351	true	GAMG	8.838920e-03	3.316660e-05	2	true
1.15          	smoothSolver	9.189950e-04	9.924990e-08	636	true	smoothSolver	1.281390e-03	9.959190e-08	354	true	GAMG	8.736150e-03	2.612100e-05	2	true
1.15714       	smoothSolver	8.550450e-04	9.902760e-08	651	true	smoothSolver	1.240990e-03	9.842750e-08	363	true	GAMG	9.034160e-03	3.264100e-05	2	true
1.16429       	smoothSolver	8.575360e-04	9.937990e-08	672	true	smoothSolver	1.236800e-03	9.897010e-08	375	true	GAMG	8.741700e-03	2.718220e-05	2	true
1.17143       	smoothSolver	8.887240e-04	9.957340e-08	849	true	smoothSolver	1.243150e-03	9.973480e-08	462	true	GAMG	9.698510e-03	3.848510e-05	2	true
1.17857       	smoothSolver	8.809350e-04	9.977310e-08	771	true	smoothSolver	1.227700e-03	9.871460e-08	417	true	GAMG	9.544760e-03	3.262690e-05	2	true
1.18571       	smoothSolver	8.462750e-04	9.954460e-08	729	true	smoothSolver	1.202400e-03	9.901650e-08	394	true	GAMG	9.061320e-03	3.436790e-05	2	true
1.19286       	smoothSolver	8.205310e-04	9.990500e-08	698	true	smoothSolver	1.180390e-03	9.859120e-08	378	true	GAMG	8.646700e-03	2.886270e-05	2	true
1.2           	smoothSolver	8.225310e-04	9.995440e-08	672	true	smoothSolver	1.173900e-03	9.951740e-08	364	true	GAMG	8.721700e-03	3.375790e-05	2	true
1.20714       	smoothSolver	8.214750e-04	9.901580e-08	659	true	smoothSolver	1.171010e-03	9.944030e-08	358	true	GAMG	8.359610e-03	2.764130e-05	2	true
1.21429       	smoothSolver	8.131950e-04	9.971910e-08	640	true	smoothSolver	1.160380e-03	9.846500e-08	349	true	GAMG	7.839530e-03	2.865580e-05	2	true
1.22143       	smoothSolver	7.615640e-04	9.998420e-08	626	true	smoothSolver	1.132860e-03	9.882000e-08	342	true	GAMG	8.679000e-03	2.829280e-05	2	true
1.22857       	smoothSolver	7.802870e-04	9.965680e-08	612	true	smoothSolver	1.137330e-03	9.900310e-08	335	true	GAMG	9.151470e-03	2.680870e-05	2	true
1.23571       	smoothSolver	7.524330e-04	9.958500e-08	605	true	smoothSolver	1.120930e-03	9.855300e-08	332	true	GAMG	9.469190e-03	2.811550e-05	2	true
1.24286       	smoothSolver	7.808610e-04	9.902780e-08	597	true	smoothSolver	1.119230e-03	9.826140e-08	329	true	GAMG	9.573530e-03	2.632730e-05	2	true
1.25          	smoothSolver	7.302150e-04	9.932140e-08	588	true	smoothSolver	1.090970e-03	9.976420e-08	324	true	GAMG	9.516490e-03	2.367440e-05	2	true
1.25625       	smoothSolver	6.785160e-04	9.900240e-08	510	true	smoothSolver	9.978260e-04	9.908920e-08	281	true	GAMG	8.335720e-03	2.257440e-05	2	true
1.2625        	smoothSolver	7.046260e-04	9.884990e-08	502	true	smoothSolver	1.001280e-03	9.861600e-08	278	true	GAMG	7.998440e-03	1.938410e-05	2	true
1.26875       	smoothSolver	6.715370e-04	9.889100e-08	497	true	smoothSolver	9.870690e-04	9.792040e-08	276	true	GAMG	8.190970e-03	2.309150e-05	2	true
1.275         	smoothSolver	6.620240e-04	9.859800e-08	493	true	smoothSolver	9.758020e-04	9.786630e-08	274	true	GAMG	7.906270e-03	1.849960e-05	2	true
1.28125       	smoothSolver	6.716600e-04	9.960830e-08	493	true	smoothSolver	9.723820e-04	9.826580e-08	275	true	GAMG	7.601530e-03	2.588870e-05	2	true
1.2875        	smoothSolver	6.610000e-04	9.887540e-08	489	true	smoothSolver	9.669980e-04	9.984050e-08	272	true	GAMG	7.270400e-03	2.185830e-05	2	true
1.29375       	smoothSolver	6.623420e-04	9.853720e-08	485	true	smoothSolver	9.657150e-04	9.975760e-08	270	true	GAMG	6.478330e-03	1.773130e-05	2	true
1.3           	smoothSolver	6.710470e-04	9.866470e-08	481	true	smoothSolver	9.569820e-04	9.783300e-08	269	true	GAMG	5.935140e-03	2.060820e-05	2	true
1.30625       	smoothSolver	6.978740e-04	9.968830e-08	474	true	smoothSolver	9.552370e-04	9.819820e-08	267	true	GAMG	5.208960e-03	1.532340e-05	2	true
1.3125        	smoothSolver	6.632520e-04	9.914520e-08	471	true	smoothSolver	9.348290e-04	9.914800e-08	265	true	GAMG	4.699990e-03	1.945890e-05	2	true
1.31875       	smoothSolver	6.512600e-04	9.947900e-08	468	true	smoothSolver	9.221610e-04	9.802370e-08	264	true	GAMG	4.403900e-03	1.607640e-05	2	true
1.325         	smoothSolver	6.480600e-04	9.858210e-08	466	true	smoothSolver	9.131110e-04	9.952330e-08	262	true	GAMG	4.465390e-03	1.991510e-05	2	true
1.33125       	smoothSolver	6.467890e-04	9.940490e-08	463	true	smoothSolver	9.090040e-04	9.904570e-08	261	true	GAMG	4.142800e-03	1.334320e-05	2	true
1.3375        	smoothSolver	6.432390e-04	9.889160e-08	461	true	smoothSolver	9.025470e-04	9.872960e-08	260	true	GAMG	4.020740e-03	1.721700e-05	2	true
1.34375       	smoothSolver	6.638380e-04	9.856880e-08	465	true	smoothSolver	9.030170e-04	9.985900e-08	262	true	GAMG	4.027630e-03	1.438750e-05	2	true
1.35          	smoothSolver	6.506900e-04	9.989850e-08	461	true	smoothSolver	8.925760e-04	9.805590e-08	261	true	GAMG	4.397260e-03	1.550020e-05	2	true
1.35625       	smoothSolver	6.508370e-04	9.854010e-08	459	true	smoothSolver	8.843160e-04	9.894030e-08	259	true	GAMG	4.501230e-03	1.604990e-05	2	true
1.3625        	smoothSolver	6.503740e-04	9.946830e-08	456	true	smoothSolver	8.826180e-04	9.835190e-08	258	true	GAMG	4.877280e-03	1.599330e-05	2	true
1.36875       	smoothSolver	6.886370e-04	9.914640e-08	453	true	smoothSolver	8.854180e-04	9.938510e-08	257	true	GAMG	4.879570e-03	1.665960e-05	2	true
1.375         	smoothSolver	6.538890e-04	9.933850e-08	451	true	smoothSolver	8.706920e-04	9.897510e-08	256	true	GAMG	4.911520e-03	1.588840e-05	2	true
1.38125       	smoothSolver	6.441570e-04	9.989010e-08	449	true	smoothSolver	8.629630e-04	9.824620e-08	255	true	GAMG	4.818080e-03	1.467110e-05	2	true
1.3875        	smoothSolver	6.410650e-04	9.930400e-08	448	true	smoothSolver	8.571480e-04	9.796110e-08	254	true	GAMG	4.836520e-03	1.502710e-05	2	true
1.39375       	smoothSolver	6.423040e-04	9.900050e-08	447	true	smoothSolver	8.513950e-04	9.799770e-08	253	true	GAMG	4.754320e-03	1.430700e-05	2	true
1.4           	smoothSolver	6.382720e-04	9.890490e-08	446	true	smoothSolver	8.436410e-04	9.823060e-08	252	true	GAMG	4.748760e-03	1.417530e-05	2	true
1.40625       	smoothSolver	6.401540e-04	9.897980e-08	445	true	smoothSolver	8.395600e-04	9.859960e-08	251	true	GAMG	4.621400e-03	1.382400e-05	2	true
1.4125        	smoothSolver	6.412930e-04	9.918530e-08	444	true	smoothSolver	8.361810e-04	9.906810e-08	250	true	GAMG	4.774150e-03	1.453080e-05	2	true
1.41875       	smoothSolver	6.517900e-04	9.950440e-08	443	true	smoothSolver	8.336020e-04	9.958470e-08	249	true	GAMG	4.564140e-03	1.313950e-05	2	true
1.425         	smoothSolver	6.480650e-04	9.992810e-08	442	true	smoothSolver	8.284230e-04	9.796120e-08	249	true	GAMG	4.804960e-03	1.448310e-05	2	true
1.43125       	smoothSolver	6.483640e-04	9.910720e-08	442	true	smoothSolver	8.310370e-04	9.892820e-08	248	true	GAMG	4.599640e-03	1.222800e-05	2	true
1.4375        	smoothSolver	6.466110e-04	9.975410e-08	441	true	smoothSolver	8.258360e-04	9.962440e-08	247	true	GAMG	4.697690e-03	1.456250e-05	2	true
1.44375       	smoothSolver	6.442210e-04	9.901270e-08	441	true	smoothSolver	8.203820e-04	9.818840e-08	247	true	GAMG	4.815030e-03	1.339450e-05	2	true
1.45          	smoothSolver	6.415500e-04	9.984240e-08	440	true	smoothSolver	8.144600e-04	9.891020e-08	246	true	GAMG	4.591770e-03	1.567120e-05	2	true
1.45556       	smoothSolver	6.095600e-04	9.945690e-08	392	true	smoothSolver	7.511330e-04	9.908250e-08	217	true	GAMG	3.985560e-03	1.008300e-05	2	true
1.46111       	smoothSolver	6.079700e-04	9.933480e-08	392	true	smoothSolver	7.486790e-04	9.793570e-08	217	true	GAMG	3.875730e-03	1.376680e-05	2	true
1.46667       	smoothSolver	6.052490e-04	9.928480e-08	392	true	smoothSolver	7.443610e-04	9.916550e-08	216	true	GAMG	3.889070e-03	9.475720e-06	2	true
1.47222       	smoothSolver	6.074580e-04	9.928920e-08	392	true	smoothSolver	7.394400e-04	9.800420e-08	216	true	GAMG	3.675770e-03	1.352210e-05	2	true
1.47778       	smoothSolver	6.052130e-04	9.937550e-08	392	true	smoothSolver	7.346320e-04	9.921350e-08	215	true	GAMG	3.661640e-03	9.597470e-06	2	true
1.48333       	smoothSolver	6.049350e-04	9.947580e-08	392	true	smoothSolver	7.317240e-04	9.804880e-08	215	true	GAMG	3.865820e-03	1.428510e-05	2	true
1.48889       	smoothSolver	6.043480e-04	9.960530e-08	392	true	smoothSolver	7.295870e-04	9.925520e-08	214	true	GAMG	3.531040e-03	8.536570e-06	2	true
1.49444       	smoothSolver	6.469610e-04	9.881610e-08	396	true	smoothSolver	7.407240e-04	9.769370e-08	216	true	GAMG	3.464570e-03	1.346540e-05	2	true
1.5           	smoothSolver	6.544130e-04	9.929370e-08	390	true	smoothSolver	7.370030e-04	9.827830e-08	215	true	GAMG	3.561100e-03	7.552930e-06	2	true
1.50556       	smoothSolver	6.093920e-04	9.890830e-08	390	true	smoothSolver	7.243000e-04	9.967430e-08	213	true	GAMG	3.411240e-03	1.415560e-05	2	true